<?xml version="1.0" encoding="UTF-8"?>

<!-- generated on Wed 20 Nov 2019 16:54:33 CET by Eclipse SUMO GUI Version 1.3.1
<configuration xmlns:xsi="http://www.w3.org/2001/XMLSchema-instance" xsi:noNamespaceSchemaLocation="http://sumo.dlr.de/xsd/sumoConfiguration.xsd">

    <input>
        <net-file value="network.net.xml"/>
        <route-files value="network.rou.xml"/>
        <additional-files value="network.add.xml"/>
    </input>

    <output>
        <tripinfo-output value="tripinfo.xml"/>
    </output>

    <time>
        <begin value="0"/>
        <end value="2000"/>
    </time>

    <traci_server>
        <remote-port value="60871"/>
    </traci_server>

    <gui_only>
        <gui-settings-file value="network.settings.xml"/>
    </gui_only>

</configuration>
-->

<tripinfos xmlns:xsi="http://www.w3.org/2001/XMLSchema-instance" xsi:noNamespaceSchemaLocation="http://sumo.dlr.de/xsd/tripinfo_file.xsd">
    <tripinfo id="3" depart="3.00" departLane="eb_0" departPos="5.10" departSpeed="0.00" departDelay="0.00" arrival="12.00" arrivalLane="eb_0" arrivalPos="75.36" arrivalSpeed="13.87" duration="9.00" routeLength="70.26" waitingTime="0.00" waitingCount="0" stopTime="0.00" timeLoss="3.54" rerouteNo="1" devices="tripinfo_3 routing_3" vType="DEFAULT_VEHTYPE" speedFactor="1.08" vaporized=""/>
    <tripinfo id="10" depart="10.00" departLane="cd_0" departPos="5.10" departSpeed="0.00" departDelay="0.00" arrival="38.00" arrivalLane="eb_0" arrivalPos="75.36" arrivalSpeed="14.62" duration="28.00" routeLength="295.77" waitingTime="0.00" waitingCount="0" stopTime="0.00" timeLoss="6.52" rerouteNo="1" devices="tripinfo_10 routing_10" vType="DEFAULT_VEHTYPE" speedFactor="1.09" vaporized=""/>
    <tripinfo id="17" depart="17.00" departLane="cd_0" departPos="5.10" departSpeed="0.00" departDelay="0.00" arrival="41.00" arrivalLane="da_0" arrivalPos="100.26" arrivalSpeed="11.99" duration="24.00" routeLength="237.41" waitingTime="0.00" waitingCount="0" stopTime="0.00" timeLoss="5.10" rerouteNo="0" devices="tripinfo_17 routing_17" vType="DEFAULT_VEHTYPE" speedFactor="0.94" vaporized=""/>
    <tripinfo id="1" depart="1.00" departLane="cb_0" departPos="5.10" departSpeed="0.00" departDelay="0.00" arrival="44.00" arrivalLane="ad_0" arrivalPos="100.26" arrivalSpeed="12.12" duration="43.00" routeLength="361.90" waitingTime="3.00" waitingCount="1" stopTime="0.00" timeLoss="13.57" rerouteNo="1" devices="tripinfo_1 routing_1" vType="DEFAULT_VEHTYPE" speedFactor="0.94" vaporized=""/>
    <tripinfo id="0" depart="0.00" departLane="ad_0" departPos="5.10" departSpeed="0.00" departDelay="0.00" arrival="53.00" arrivalLane="be_0" arrivalPos="75.36" arrivalSpeed="13.44" duration="53.00" routeLength="460.55" waitingTime="6.00" waitingCount="1" stopTime="0.00" timeLoss="19.10" rerouteNo="1" devices="tripinfo_0 routing_0" vType="DEFAULT_VEHTYPE" speedFactor="1.06" vaporized=""/>
    <tripinfo id="4" depart="4.00" departLane="be_0" departPos="5.10" departSpeed="0.00" departDelay="0.00" arrival="62.00" arrivalLane="da_0" arrivalPos="100.26" arrivalSpeed="14.31" duration="58.00" routeLength="271.10" waitingTime="27.00" waitingCount="1" stopTime="0.00" timeLoss="37.60" rerouteNo="1" devices="tripinfo_4 routing_4" vType="DEFAULT_VEHTYPE" speedFactor="1.03" vaporized=""/>
    <tripinfo id="16" depart="16.00" departLane="dc_0" departPos="5.10" departSpeed="0.00" departDelay="0.00" arrival="72.00" arrivalLane="ea_0" arrivalPos="74.83" arrivalSpeed="12.17" duration="56.00" routeLength="311.82" waitingTime="3.00" waitingCount="2" stopTime="0.00" timeLoss="28.17" rerouteNo="1" devices="tripinfo_16 routing_16" vType="DEFAULT_VEHTYPE" speedFactor="0.88" vaporized=""/>
    <tripinfo id="2" depart="4.00" departLane="ab_0" departPos="5.10" departSpeed="0.00" departDelay="2.00" arrival="77.00" arrivalLane="ae_0" arrivalPos="74.83" arrivalSpeed="13.57" duration="73.00" routeLength="489.18" waitingTime="17.00" waitingCount="1" stopTime="0.00" timeLoss="34.47" rerouteNo="1" devices="tripinfo_2 routing_2" vType="DEFAULT_VEHTYPE" speedFactor="1.01" vaporized=""/>
    <tripinfo id="18" depart="18.00" departLane="ad_0" departPos="5.10" departSpeed="0.00" departDelay="0.00" arrival="77.00" arrivalLane="ab_0" arrivalPos="122.29" arrivalSpeed="12.55" duration="59.00" routeLength="410.64" waitingTime="10.00" waitingCount="2" stopTime="0.00" timeLoss="22.96" rerouteNo="1" devices="tripinfo_18 routing_18" vType="DEFAULT_VEHTYPE" speedFactor="0.94" vaporized=""/>
    <tripinfo id="14" depart="15.00" departLane="ed_0" departPos="5.10" departSpeed="0.00" departDelay="1.00" arrival="78.00" arrivalLane="cb_0" arrivalPos="101.11" arrivalSpeed="12.59" duration="63.00" routeLength="338.21" waitingTime="24.00" waitingCount="1" stopTime="0.00" timeLoss="35.71" rerouteNo="1" devices="tripinfo_14 routing_14" vType="DEFAULT_VEHTYPE" speedFactor="0.99" vaporized=""/>
    <tripinfo id="7" depart="7.00" departLane="dc_0" departPos="5.10" departSpeed="0.00" departDelay="0.00" arrival="82.00" arrivalLane="bc_0" arrivalPos="101.11" arrivalSpeed="12.12" duration="75.00" routeLength="417.93" waitingTime="13.00" waitingCount="2" stopTime="0.00" timeLoss="36.87" rerouteNo="1" devices="tripinfo_7 routing_7" vType="DEFAULT_VEHTYPE" speedFactor="0.89" vaporized=""/>
    <tripinfo id="6" depart="6.00" departLane="bc_0" departPos="5.10" departSpeed="0.00" departDelay="0.00" arrival="88.00" arrivalLane="be_0" arrivalPos="75.36" arrivalSpeed="13.73" duration="82.00" routeLength="494.91" waitingTime="21.00" waitingCount="2" stopTime="0.00" timeLoss="44.47" rerouteNo="1" devices="tripinfo_6 routing_6" vType="DEFAULT_VEHTYPE" speedFactor="1.05" vaporized=""/>
    <tripinfo id="9" depart="9.00" departLane="bc_0" departPos="5.10" departSpeed="0.00" departDelay="0.00" arrival="93.00" arrivalLane="ad_0" arrivalPos="100.26" arrivalSpeed="4.85" duration="84.00" routeLength="396.95" waitingTime="25.00" waitingCount="3" stopTime="0.00" timeLoss="48.29" rerouteNo="1" devices="tripinfo_9 routing_9" vType="DEFAULT_VEHTYPE" speedFactor="0.86" vaporized=""/>
    <tripinfo id="11" depart="11.00" departLane="de_0" departPos="5.10" departSpeed="0.00" departDelay="0.00" arrival="101.00" arrivalLane="da_0" arrivalPos="100.26" arrivalSpeed="13.84" duration="90.00" routeLength="412.02" waitingTime="44.00" waitingCount="1" stopTime="0.00" timeLoss="58.24" rerouteNo="1" devices="tripinfo_11 routing_11" vType="DEFAULT_VEHTYPE" speedFactor="1.03" vaporized=""/>
    <tripinfo id="13" depart="13.00" departLane="ab_0" departPos="5.10" departSpeed="0.00" departDelay="0.00" arrival="101.00" arrivalLane="cb_0" arrivalPos="101.11" arrivalSpeed="15.21" duration="88.00" routeLength="418.07" waitingTime="45.00" waitingCount="1" stopTime="0.00" timeLoss="58.20" rerouteNo="1" devices="tripinfo_13 routing_13" vType="DEFAULT_VEHTYPE" speedFactor="1.12" vaporized=""/>
    <tripinfo id="19" depart="19.00" departLane="ba_0" departPos="5.10" departSpeed="0.00" departDelay="0.00" arrival="102.00" arrivalLane="ab_0" arrivalPos="122.29" arrivalSpeed="15.96" duration="83.00" routeLength="545.55" waitingTime="16.00" waitingCount="1" stopTime="0.00" timeLoss="45.60" rerouteNo="1" devices="tripinfo_19 routing_19" vType="DEFAULT_VEHTYPE" speedFactor="1.16" vaporized=""/>
    <tripinfo id="12" depart="12.00" departLane="ba_0" departPos="5.10" departSpeed="0.00" departDelay="0.00" arrival="104.00" arrivalLane="cb_0" arrivalPos="101.11" arrivalSpeed="13.99" duration="92.00" routeLength="428.88" waitingTime="41.00" waitingCount="3" stopTime="0.00" timeLoss="60.16" rerouteNo="1" devices="tripinfo_12 routing_12" vType="DEFAULT_VEHTYPE" speedFactor="1.05" vaporized=""/>
    <tripinfo id="15" depart="17.00" departLane="bc_0" departPos="5.10" departSpeed="0.00" departDelay="2.00" arrival="105.00" arrivalLane="da_0" arrivalPos="100.26" arrivalSpeed="11.98" duration="88.00" routeLength="355.27" waitingTime="43.00" waitingCount="2" stopTime="0.00" timeLoss="58.32" rerouteNo="1" devices="tripinfo_15 routing_15" vType="DEFAULT_VEHTYPE" speedFactor="0.93" vaporized=""/>
    <tripinfo id="8" depart="8.00" departLane="ea_0" departPos="5.10" departSpeed="0.00" departDelay="0.00" arrival="123.00" arrivalLane="dc_0" arrivalPos="125.75" arrivalSpeed="5.04" duration="115.00" routeLength="336.98" waitingTime="67.00" waitingCount="3" stopTime="0.00" timeLoss="87.42" rerouteNo="1" devices="tripinfo_8 routing_8" vType="DEFAULT_VEHTYPE" speedFactor="0.94" vaporized=""/>
    <tripinfo id="5" depart="5.00" departLane="cb_0" departPos="5.10" departSpeed="0.00" departDelay="0.00" arrival="132.00" arrivalLane="ce_0" arrivalPos="79.12" arrivalSpeed="10.61" duration="127.00" routeLength="527.45" waitingTime="58.00" waitingCount="3" stopTime="0.00" timeLoss="76.97" rerouteNo="1" devices="tripinfo_5 routing_5" vType="DEFAULT_VEHTYPE" speedFactor="0.83" vaporized=""/>
    <tripinfo id="0ev" depart="0.00" departLane="ab_0" departPos="7.10" departSpeed="0.00" departDelay="0.00" arrival="153.00" arrivalLane="ba_0" arrivalPos="122.29" arrivalSpeed="17.61" duration="153.00" routeLength="843.80" waitingTime="47.00" waitingCount="6" stopTime="0.00" timeLoss="108.60" rerouteNo="0" devices="tripinfo_0ev" vType="ev" speedFactor="2.00" vaporized=""/>
</tripinfos>
