<?xml version="1.0" encoding="UTF-8"?>

<!-- generated on Tue Nov 19 14:16:35 2019 by Eclipse SUMO GUI Version 1.3.1
<configuration xmlns:xsi="http://www.w3.org/2001/XMLSchema-instance" xsi:noNamespaceSchemaLocation="http://sumo.dlr.de/xsd/sumoConfiguration.xsd">

    <input>
        <net-file value="network.net.xml"/>
        <route-files value="network.rou.xml"/>
        <additional-files value="network.add.xml"/>
    </input>

    <output>
        <tripinfo-output value="tripinfo.xml"/>
    </output>

    <time>
        <begin value="0"/>
        <end value="2000"/>
    </time>

    <traci_server>
        <remote-port value="50503"/>
    </traci_server>

    <gui_only>
        <gui-settings-file value="network.settings.xml"/>
    </gui_only>

</configuration>
-->

<tripinfos xmlns:xsi="http://www.w3.org/2001/XMLSchema-instance" xsi:noNamespaceSchemaLocation="http://sumo.dlr.de/xsd/tripinfo_file.xsd">
    <tripinfo id="3" depart="0.00" departLane="eb_0" departPos="5.10" departSpeed="0.00" departDelay="0.00" arrival="9.00" arrivalLane="eb_0" arrivalPos="75.36" arrivalSpeed="14.16" duration="9.00" routeLength="70.26" waitingTime="0.00" waitingCount="0" stopTime="0.00" timeLoss="3.61" rerouteNo="1" devices="tripinfo_3 routing_3" vType="DEFAULT_VEHTYPE" speedFactor="1.08" vaporized=""/>
    <tripinfo id="13" depart="3.00" departLane="eb_0" departPos="5.10" departSpeed="0.00" departDelay="2.00" arrival="11.00" arrivalLane="eb_0" arrivalPos="75.36" arrivalSpeed="14.68" duration="8.00" routeLength="70.26" waitingTime="0.00" waitingCount="0" stopTime="0.00" timeLoss="3.36" rerouteNo="1" devices="tripinfo_13 routing_13" vType="DEFAULT_VEHTYPE" speedFactor="1.12" vaporized=""/>
    <tripinfo id="23" depart="6.00" departLane="eb_0" departPos="5.10" departSpeed="0.00" departDelay="4.00" arrival="15.00" arrivalLane="eb_0" arrivalPos="75.36" arrivalSpeed="11.33" duration="9.00" routeLength="70.26" waitingTime="0.00" waitingCount="0" stopTime="0.00" timeLoss="2.86" rerouteNo="1" devices="tripinfo_23 routing_23" vType="DEFAULT_VEHTYPE" speedFactor="0.88" vaporized=""/>
    <tripinfo id="1" depart="0.00" departLane="cb_0" departPos="5.10" departSpeed="0.00" departDelay="0.00" arrival="35.00" arrivalLane="ad_0" arrivalPos="100.26" arrivalSpeed="12.12" duration="35.00" routeLength="361.90" waitingTime="0.00" waitingCount="0" stopTime="0.00" timeLoss="5.02" rerouteNo="1" devices="tripinfo_1 routing_1" vType="DEFAULT_VEHTYPE" speedFactor="0.94" vaporized=""/>
    <tripinfo id="11" depart="6.00" departLane="cb_0" departPos="5.10" departSpeed="0.00" departDelay="5.00" arrival="50.00" arrivalLane="ad_0" arrivalPos="100.26" arrivalSpeed="12.98" duration="44.00" routeLength="361.90" waitingTime="6.00" waitingCount="1" stopTime="0.00" timeLoss="16.72" rerouteNo="1" devices="tripinfo_11 routing_11" vType="DEFAULT_VEHTYPE" speedFactor="1.03" vaporized=""/>
    <tripinfo id="0" depart="0.00" departLane="ad_0" departPos="5.10" departSpeed="0.00" departDelay="0.00" arrival="55.00" arrivalLane="be_0" arrivalPos="75.36" arrivalSpeed="14.47" duration="55.00" routeLength="460.55" waitingTime="8.00" waitingCount="1" stopTime="0.00" timeLoss="21.21" rerouteNo="1" devices="tripinfo_0 routing_0" vType="DEFAULT_VEHTYPE" speedFactor="1.06" vaporized=""/>
    <tripinfo id="4" depart="0.00" departLane="be_0" departPos="5.10" departSpeed="0.00" departDelay="0.00" arrival="62.00" arrivalLane="da_0" arrivalPos="100.26" arrivalSpeed="13.70" duration="62.00" routeLength="271.10" waitingTime="30.00" waitingCount="1" stopTime="0.00" timeLoss="41.39" rerouteNo="1" devices="tripinfo_4 routing_4" vType="DEFAULT_VEHTYPE" speedFactor="1.03" vaporized=""/>
    <tripinfo id="14" depart="3.00" departLane="be_0" departPos="5.10" departSpeed="0.00" departDelay="2.00" arrival="65.00" arrivalLane="da_0" arrivalPos="100.26" arrivalSpeed="13.24" duration="62.00" routeLength="271.10" waitingTime="29.00" waitingCount="1" stopTime="0.00" timeLoss="40.63" rerouteNo="1" devices="tripinfo_14 routing_14" vType="DEFAULT_VEHTYPE" speedFactor="0.99" vaporized=""/>
    <tripinfo id="24" depart="6.00" departLane="be_0" departPos="5.10" departSpeed="0.00" departDelay="4.00" arrival="68.00" arrivalLane="da_0" arrivalPos="100.26" arrivalSpeed="12.87" duration="62.00" routeLength="271.10" waitingTime="28.00" waitingCount="1" stopTime="0.00" timeLoss="39.00" rerouteNo="1" devices="tripinfo_24 routing_24" vType="DEFAULT_VEHTYPE" speedFactor="0.94" vaporized=""/>
    <tripinfo id="7" depart="0.00" departLane="dc_0" departPos="5.10" departSpeed="0.00" departDelay="0.00" arrival="77.00" arrivalLane="bc_0" arrivalPos="101.11" arrivalSpeed="11.70" duration="77.00" routeLength="417.93" waitingTime="22.00" waitingCount="2" stopTime="0.00" timeLoss="39.94" rerouteNo="1" devices="tripinfo_7 routing_7" vType="DEFAULT_VEHTYPE" speedFactor="0.89" vaporized=""/>
    <tripinfo id="27" depart="2.00" departLane="dc_0" departPos="5.10" departSpeed="0.00" departDelay="0.00" arrival="79.00" arrivalLane="bc_0" arrivalPos="101.11" arrivalSpeed="12.96" duration="77.00" routeLength="417.93" waitingTime="17.00" waitingCount="2" stopTime="0.00" timeLoss="44.74" rerouteNo="1" devices="tripinfo_27 routing_27" vType="DEFAULT_VEHTYPE" speedFactor="1.02" vaporized=""/>
    <tripinfo id="2" depart="4.00" departLane="ab_0" departPos="5.10" departSpeed="0.00" departDelay="4.00" arrival="80.00" arrivalLane="ae_0" arrivalPos="74.83" arrivalSpeed="13.40" duration="76.00" routeLength="489.18" waitingTime="11.00" waitingCount="1" stopTime="0.00" timeLoss="37.79" rerouteNo="1" devices="tripinfo_2 routing_2" vType="DEFAULT_VEHTYPE" speedFactor="1.01" vaporized=""/>
    <tripinfo id="12" depart="8.00" departLane="ab_0" departPos="5.10" departSpeed="0.00" departDelay="7.00" arrival="82.00" arrivalLane="ae_0" arrivalPos="74.83" arrivalSpeed="14.46" duration="74.00" routeLength="489.18" waitingTime="9.00" waitingCount="1" stopTime="0.00" timeLoss="36.78" rerouteNo="1" devices="tripinfo_12 routing_12" vType="DEFAULT_VEHTYPE" speedFactor="1.05" vaporized=""/>
    <tripinfo id="6" depart="0.00" departLane="bc_0" departPos="5.10" departSpeed="0.00" departDelay="0.00" arrival="87.00" arrivalLane="be_0" arrivalPos="75.36" arrivalSpeed="14.25" duration="87.00" routeLength="494.91" waitingTime="26.00" waitingCount="2" stopTime="0.00" timeLoss="49.77" rerouteNo="1" devices="tripinfo_6 routing_6" vType="DEFAULT_VEHTYPE" speedFactor="1.05" vaporized=""/>
    <tripinfo id="26" depart="6.00" departLane="bc_0" departPos="5.10" departSpeed="0.00" departDelay="4.00" arrival="92.00" arrivalLane="be_0" arrivalPos="75.36" arrivalSpeed="15.63" duration="86.00" routeLength="494.91" waitingTime="21.00" waitingCount="2" stopTime="0.00" timeLoss="51.07" rerouteNo="1" devices="tripinfo_26 routing_26" vType="DEFAULT_VEHTYPE" speedFactor="1.16" vaporized=""/>
    <tripinfo id="9" depart="3.00" departLane="bc_0" departPos="5.10" departSpeed="0.00" departDelay="3.00" arrival="95.00" arrivalLane="ad_0" arrivalPos="100.26" arrivalSpeed="6.30" duration="92.00" routeLength="396.95" waitingTime="31.00" waitingCount="3" stopTime="0.00" timeLoss="56.35" rerouteNo="1" devices="tripinfo_9 routing_9" vType="DEFAULT_VEHTYPE" speedFactor="0.86" vaporized=""/>
    <tripinfo id="29" depart="9.00" departLane="bc_0" departPos="5.10" departSpeed="0.00" departDelay="7.00" arrival="97.00" arrivalLane="ad_0" arrivalPos="100.26" arrivalSpeed="9.09" duration="88.00" routeLength="396.95" waitingTime="26.00" waitingCount="3" stopTime="0.00" timeLoss="56.45" rerouteNo="1" devices="tripinfo_29 routing_29" vType="DEFAULT_VEHTYPE" speedFactor="0.98" vaporized=""/>
    <tripinfo id="10" depart="2.00" departLane="ad_0" departPos="5.10" departSpeed="0.00" departDelay="2.00" arrival="100.00" arrivalLane="be_0" arrivalPos="75.36" arrivalSpeed="14.52" duration="98.00" routeLength="460.55" waitingTime="45.00" waitingCount="2" stopTime="0.00" timeLoss="64.89" rerouteNo="1" devices="tripinfo_10 routing_10" vType="DEFAULT_VEHTYPE" speedFactor="1.09" vaporized=""/>
    <tripinfo id="0ev" depart="0.00" departLane="ab_0" departPos="7.10" departSpeed="0.00" departDelay="0.00" arrival="103.00" arrivalLane="da_0" arrivalPos="100.26" arrivalSpeed="13.74" duration="103.00" routeLength="547.73" waitingTime="28.00" waitingCount="1" stopTime="0.00" timeLoss="59.07" rerouteNo="2" devices="tripinfo_0ev" vType="ev" speedFactor="1.00" vaporized=""/>
</tripinfos>
