<?xml version="1.0" encoding="UTF-8"?>

<!-- generated on Mon Nov 18 12:31:38 2019 by Eclipse SUMO GUI Version 1.3.1
<configuration xmlns:xsi="http://www.w3.org/2001/XMLSchema-instance" xsi:noNamespaceSchemaLocation="http://sumo.dlr.de/xsd/sumoConfiguration.xsd">

    <input>
        <net-file value="network.net.xml"/>
        <route-files value="network.rou.xml"/>
        <additional-files value="network.add.xml"/>
    </input>

    <output>
        <tripinfo-output value="tripinfo.xml"/>
    </output>

    <time>
        <begin value="0"/>
        <end value="2000"/>
    </time>

    <traci_server>
        <remote-port value="60887"/>
    </traci_server>

    <gui_only>
        <gui-settings-file value="network.settings.xml"/>
    </gui_only>

</configuration>
-->

<tripinfos xmlns:xsi="http://www.w3.org/2001/XMLSchema-instance" xsi:noNamespaceSchemaLocation="http://sumo.dlr.de/xsd/tripinfo_file.xsd">
    <tripinfo id="3" depart="3.00" departLane="eb_0" departPos="5.10" departSpeed="0.00" departDelay="0.00" arrival="12.00" arrivalLane="eb_0" arrivalPos="75.36" arrivalSpeed="13.87" duration="9.00" routeLength="70.26" waitingTime="0.00" waitingCount="0" stopTime="0.00" timeLoss="3.54" rerouteNo="1" devices="tripinfo_3 routing_3" vType="DEFAULT_VEHTYPE" speedFactor="1.08" vaporized=""/>
    <tripinfo id="1" depart="1.00" departLane="cb_0" departPos="5.10" departSpeed="0.00" departDelay="0.00" arrival="36.00" arrivalLane="ad_0" arrivalPos="100.26" arrivalSpeed="12.04" duration="35.00" routeLength="361.90" waitingTime="0.00" waitingCount="0" stopTime="0.00" timeLoss="5.30" rerouteNo="1" devices="tripinfo_1 routing_1" vType="DEFAULT_VEHTYPE" speedFactor="0.94" vaporized=""/>
    <tripinfo id="0" depart="0.00" departLane="ad_0" departPos="5.10" departSpeed="0.00" departDelay="0.00" arrival="53.00" arrivalLane="be_0" arrivalPos="75.36" arrivalSpeed="13.56" duration="53.00" routeLength="460.55" waitingTime="6.00" waitingCount="1" stopTime="0.00" timeLoss="19.08" rerouteNo="1" devices="tripinfo_0 routing_0" vType="DEFAULT_VEHTYPE" speedFactor="1.06" vaporized=""/>
    <tripinfo id="4" depart="4.00" departLane="be_0" departPos="5.10" departSpeed="0.00" departDelay="0.00" arrival="61.00" arrivalLane="da_0" arrivalPos="100.26" arrivalSpeed="13.05" duration="57.00" routeLength="271.10" waitingTime="27.00" waitingCount="1" stopTime="0.00" timeLoss="37.03" rerouteNo="1" devices="tripinfo_4 routing_4" vType="DEFAULT_VEHTYPE" speedFactor="1.03" vaporized=""/>
    <tripinfo id="0ev" depart="0.00" departLane="ab_0" departPos="7.10" departSpeed="0.00" departDelay="0.00" arrival="74.00" arrivalLane="da_0" arrivalPos="100.26" arrivalSpeed="11.65" duration="74.00" routeLength="523.98" waitingTime="5.00" waitingCount="1" stopTime="0.00" timeLoss="32.09" rerouteNo="1" devices="tripinfo_0ev" vType="ev" speedFactor="1.00" vaporized=""/>
    <tripinfo id="2" depart="4.00" departLane="ab_0" departPos="5.10" departSpeed="0.00" departDelay="2.00" arrival="74.00" arrivalLane="ae_0" arrivalPos="74.83" arrivalSpeed="13.92" duration="70.00" routeLength="489.18" waitingTime="15.00" waitingCount="1" stopTime="0.00" timeLoss="31.53" rerouteNo="1" devices="tripinfo_2 routing_2" vType="DEFAULT_VEHTYPE" speedFactor="1.01" vaporized=""/>
    <tripinfo id="7" depart="7.00" departLane="dc_0" departPos="5.10" departSpeed="0.00" departDelay="0.00" arrival="78.00" arrivalLane="bc_0" arrivalPos="101.11" arrivalSpeed="11.74" duration="71.00" routeLength="417.93" waitingTime="11.00" waitingCount="2" stopTime="0.00" timeLoss="32.82" rerouteNo="1" devices="tripinfo_7 routing_7" vType="DEFAULT_VEHTYPE" speedFactor="0.89" vaporized=""/>
    <tripinfo id="6" depart="6.00" departLane="bc_0" departPos="5.10" departSpeed="0.00" departDelay="0.00" arrival="85.00" arrivalLane="be_0" arrivalPos="75.36" arrivalSpeed="13.23" duration="79.00" routeLength="494.91" waitingTime="20.00" waitingCount="2" stopTime="0.00" timeLoss="41.84" rerouteNo="1" devices="tripinfo_6 routing_6" vType="DEFAULT_VEHTYPE" speedFactor="1.05" vaporized=""/>
    <tripinfo id="9" depart="9.00" departLane="bc_0" departPos="5.10" departSpeed="0.00" departDelay="0.00" arrival="93.00" arrivalLane="ad_0" arrivalPos="100.26" arrivalSpeed="4.96" duration="84.00" routeLength="396.95" waitingTime="25.00" waitingCount="3" stopTime="0.00" timeLoss="47.98" rerouteNo="1" devices="tripinfo_9 routing_9" vType="DEFAULT_VEHTYPE" speedFactor="0.86" vaporized=""/>
    <tripinfo id="8" depart="8.00" departLane="ea_0" departPos="5.10" departSpeed="0.00" departDelay="0.00" arrival="124.00" arrivalLane="dc_0" arrivalPos="125.75" arrivalSpeed="6.84" duration="116.00" routeLength="336.98" waitingTime="70.00" waitingCount="3" stopTime="0.00" timeLoss="87.95" rerouteNo="1" devices="tripinfo_8 routing_8" vType="DEFAULT_VEHTYPE" speedFactor="0.94" vaporized=""/>
    <tripinfo id="5" depart="5.00" departLane="cb_0" departPos="5.10" departSpeed="0.00" departDelay="0.00" arrival="133.00" arrivalLane="ce_0" arrivalPos="79.12" arrivalSpeed="10.53" duration="128.00" routeLength="527.45" waitingTime="58.00" waitingCount="3" stopTime="0.00" timeLoss="77.29" rerouteNo="1" devices="tripinfo_5 routing_5" vType="DEFAULT_VEHTYPE" speedFactor="0.83" vaporized=""/>
</tripinfos>
