<?xml version="1.0" encoding="UTF-8"?>

<!-- generated on Mon 11 Nov 2019 12:12:47 CET by Eclipse SUMO GUI Version 1.3.1
<configuration xmlns:xsi="http://www.w3.org/2001/XMLSchema-instance" xsi:noNamespaceSchemaLocation="http://sumo.dlr.de/xsd/sumoConfiguration.xsd">

    <input>
        <net-file value="network.net.xml"/>
        <route-files value="network.rou.xml"/>
        <additional-files value="network.add.xml"/>
    </input>

    <output>
        <tripinfo-output value="tripinfo.xml"/>
    </output>

    <time>
        <begin value="0"/>
        <end value="2000"/>
    </time>

    <traci_server>
        <remote-port value="52483"/>
    </traci_server>

    <gui_only>
        <gui-settings-file value="network.settings.xml"/>
    </gui_only>

</configuration>
-->

<tripinfos xmlns:xsi="http://www.w3.org/2001/XMLSchema-instance" xsi:noNamespaceSchemaLocation="http://sumo.dlr.de/xsd/tripinfo_file.xsd">
    <tripinfo id="3" depart="3.00" departLane="eb_0" departPos="5.10" departSpeed="0.00" departDelay="0.00" arrival="12.00" arrivalLane="eb_0" arrivalPos="75.36" arrivalSpeed="13.87" duration="9.00" routeLength="70.26" waitingTime="0.00" waitingCount="0" stopTime="0.00" timeLoss="3.54" rerouteNo="1" devices="tripinfo_3 routing_3" vType="DEFAULT_VEHTYPE" speedFactor="1.08" vaporized=""/>
    <tripinfo id="1" depart="1.00" departLane="cb_0" departPos="5.10" departSpeed="0.00" departDelay="0.00" arrival="36.00" arrivalLane="ad_0" arrivalPos="100.26" arrivalSpeed="12.04" duration="35.00" routeLength="361.90" waitingTime="0.00" waitingCount="0" stopTime="0.00" timeLoss="5.30" rerouteNo="1" devices="tripinfo_1 routing_1" vType="DEFAULT_VEHTYPE" speedFactor="0.94" vaporized=""/>
    <tripinfo id="0ev" depart="0.00" departLane="ab_0" departPos="7.10" departSpeed="0.00" departDelay="0.00" arrival="51.00" arrivalLane="ce_0" arrivalPos="79.12" arrivalSpeed="7.36" duration="51.00" routeLength="323.32" waitingTime="8.00" waitingCount="1" stopTime="0.00" timeLoss="34.22" rerouteNo="1" devices="tripinfo_0ev" vType="ev" speedFactor="2.00" vaporized=""/>
    <tripinfo id="4" depart="4.00" departLane="be_0" departPos="5.10" departSpeed="0.00" departDelay="0.00" arrival="61.00" arrivalLane="da_0" arrivalPos="100.26" arrivalSpeed="13.05" duration="57.00" routeLength="271.10" waitingTime="27.00" waitingCount="1" stopTime="0.00" timeLoss="37.04" rerouteNo="1" devices="tripinfo_4 routing_4" vType="DEFAULT_VEHTYPE" speedFactor="1.03" vaporized=""/>
</tripinfos>
