<?xml version="1.0" encoding="UTF-8"?>

<!-- generated on Thu Nov 21 13:06:21 2019 by Eclipse SUMO GUI Version 1.3.1
<configuration xmlns:xsi="http://www.w3.org/2001/XMLSchema-instance" xsi:noNamespaceSchemaLocation="http://sumo.dlr.de/xsd/sumoConfiguration.xsd">

    <input>
        <net-file value="network.net.xml"/>
        <route-files value="network.rou.xml"/>
        <additional-files value="network.add.xml"/>
    </input>

    <output>
        <tripinfo-output value="tripinfo.xml"/>
    </output>

    <time>
        <begin value="0"/>
        <end value="2000"/>
    </time>

    <traci_server>
        <remote-port value="51900"/>
    </traci_server>

    <gui_only>
        <gui-settings-file value="network.settings.xml"/>
    </gui_only>

</configuration>
-->

<tripinfos xmlns:xsi="http://www.w3.org/2001/XMLSchema-instance" xsi:noNamespaceSchemaLocation="http://sumo.dlr.de/xsd/tripinfo_file.xsd">
</tripinfos>
 id="3" depart="3.00" departLane="eb_0" departPos="5.10" departSpeed="0.00" departDelay="0.00" arrival="12.00" arrivalLane="eb_0" arrivalPos="75.36" arrivalSpeed="13.87" duration="9.00" routeLength="70.26" waitingTime="0.00" waitingCount="0" stopTime="0.00" timeLoss="3.54" rerouteNo="1" devices="tripinfo_3 routing_3" vType="DEFAULT_VEHTYPE" speedFactor="1.08" vaporized=""/>
    <tripinfo id="10" depart="10.00" departLane="cd_0" departPos="5.10" departSpeed="0.00" departDelay="0.00" arrival="38.00" arrivalLane="eb_0" arrivalPos="75.36" arrivalSpeed="14.62" duration="28.00" routeLength="295.77" waitingTime="0.00" waitingCount="0" stopTime="0.00" timeLoss="6.52" rerouteNo="1" devices="tripinfo_10 routing_10" vType="DEFAULT_VEHTYPE" speedFactor="1.09" vaporized=""/>
    <tripinfo id="17" depart="17.00" departLane="cd_0" departPos="5.10" departSpeed="0.00" departDelay="0.00" arrival="41.00" arrivalLane="da_0" arrivalPos="100.26" arrivalSpeed="11.99" duration="24.00" routeLength="237.41" waitingTime="0.00" waitingCount="0" stopTime="0.00" timeLoss="5.10" rerouteNo="0" devices="tripinfo_17 routing_17" vType="DEFAULT_VEHTYPE" speedFactor="0.94" vaporized=""/>
    <tripinfo id="1" depart="1.00" departLane="cb_0" departPos="5.10" departSpeed="0.00" departDelay="0.00" arrival="44.00" arrivalLane="ad_0" arrivalPos="100.26" arrivalSpeed="12.12" duration="43.00" routeLength="361.90" waitingTime="3.00" waitingCount="1" stopTime="0.00" timeLoss="13.57" rerouteNo="1" devices="tripinfo_1 routing_1" vType="DEFAULT_VEHTYPE" speedFactor="0.94" vaporized=""/>
    <tripinfo id="0" depart="0.00" departLane="ad_0" departPos="5.10" departSpeed="0.00" departDelay="0.00" arrival="53.00" arrivalLane="be_0" arrivalPos="75.36" arrivalSpeed="13.44" duration="53.00" routeLength="460.55" waitingTime="6.00" waitingCount="1" stopTime="0.00" timeLoss="19.10" rerouteNo="1" devices="tripinfo_0 routing_0" vType="DEFAULT_VEHTYPE" speedFactor="1.06" vaporized=""/>
    <tripinfo id="4" depart="4.00" departLane="be_0" departPos="5.10" departSpeed="0.00" departDelay="0.00" arrival="62.00" arrivalLane="da_0" arrivalPos="100.26" arrivalSpeed="14.31" duration="58.00" routeLength="271.10" waitingTime="27.00" waitingCount="1" stopTime="0.00" timeLoss="37.60" rerouteNo="1" devices="tripinfo_4 routing_4" vType="DEFAULT_VEHTYPE" speedFactor="1.03" vaporized=""/>
    <tripinfo id="0ev" depart="0.00" departLane="ab_0" departPos="7.10" departSpeed="0.00" departDelay="0.00" arrival="68.00" arrivalLane="ba_0" arrivalPos="122.29" arrivalSpeed="17.69" duration="68.00" routeLength="550.86" waitingTime="8.00" waitingCount="1" stopTime="0.00" timeLoss="39.02" rerouteNo="1" devices="tripinfo_0ev" vType="ev" speedFactor="2.00" vaporized=""/>
</tripinfos>
