<?xml version="1.0" encoding="UTF-8"?>

<!-- generated on Thu 21 Nov 2019 17:47:53 CET by Eclipse SUMO GUI Version 1.3.1
<configuration xmlns:xsi="http://www.w3.org/2001/XMLSchema-instance" xsi:noNamespaceSchemaLocation="http://sumo.dlr.de/xsd/sumoConfiguration.xsd">

    <input>
        <net-file value="network.net.xml"/>
        <route-files value="network.rou.xml"/>
        <additional-files value="network.add.xml"/>
    </input>

    <output>
        <tripinfo-output value="tripinfo.xml"/>
    </output>

    <time>
        <begin value="0"/>
        <end value="2000"/>
    </time>

    <traci_server>
        <remote-port value="58555"/>
    </traci_server>

    <gui_only>
        <gui-settings-file value="network.settings.xml"/>
    </gui_only>

</configuration>
-->

<tripinfos xmlns:xsi="http://www.w3.org/2001/XMLSchema-instance" xsi:noNamespaceSchemaLocation="http://sumo.dlr.de/xsd/tripinfo_file.xsd">
    <tripinfo id="3" depart="0.00" departLane="eb_0" departPos="5.10" departSpeed="0.00" departDelay="0.00" arrival="9.00" arrivalLane="eb_0" arrivalPos="75.36" arrivalSpeed="14.16" duration="9.00" routeLength="70.26" waitingTime="0.00" waitingCount="0" stopTime="0.00" timeLoss="3.61" rerouteNo="1" devices="tripinfo_3 routing_3" vType="DEFAULT_VEHTYPE" speedFactor="1.08" vaporized=""/>
    <tripinfo id="13" depart="3.00" departLane="eb_0" departPos="5.10" departSpeed="0.00" departDelay="2.00" arrival="11.00" arrivalLane="eb_0" arrivalPos="75.36" arrivalSpeed="15.46" duration="8.00" routeLength="70.26" waitingTime="0.00" waitingCount="0" stopTime="0.00" timeLoss="3.31" rerouteNo="1" devices="tripinfo_13 routing_13" vType="DEFAULT_VEHTYPE" speedFactor="1.12" vaporized=""/>
    <tripinfo id="23" depart="6.00" departLane="eb_0" departPos="5.10" departSpeed="0.00" departDelay="4.00" arrival="15.00" arrivalLane="eb_0" arrivalPos="75.36" arrivalSpeed="11.77" duration="9.00" routeLength="70.26" waitingTime="0.00" waitingCount="0" stopTime="0.00" timeLoss="2.84" rerouteNo="1" devices="tripinfo_23 routing_23" vType="DEFAULT_VEHTYPE" speedFactor="0.89" vaporized=""/>
    <tripinfo id="53" depart="9.00" departLane="eb_0" departPos="5.10" departSpeed="0.00" departDelay="7.00" arrival="18.00" arrivalLane="eb_0" arrivalPos="75.36" arrivalSpeed="15.49" duration="9.00" routeLength="70.26" waitingTime="0.00" waitingCount="0" stopTime="0.00" timeLoss="3.97" rerouteNo="1" devices="tripinfo_53 routing_53" vType="DEFAULT_VEHTYPE" speedFactor="1.17" vaporized=""/>
    <tripinfo id="4" depart="0.00" departLane="be_0" departPos="5.10" departSpeed="0.00" departDelay="0.00" arrival="36.00" arrivalLane="da_0" arrivalPos="100.26" arrivalSpeed="13.56" duration="36.00" routeLength="271.10" waitingTime="4.00" waitingCount="1" stopTime="0.00" timeLoss="15.19" rerouteNo="1" devices="tripinfo_4 routing_4" vType="DEFAULT_VEHTYPE" speedFactor="1.03" vaporized=""/>
    <tripinfo id="14" depart="3.00" departLane="be_0" departPos="5.10" departSpeed="0.00" departDelay="2.00" arrival="38.00" arrivalLane="da_0" arrivalPos="100.26" arrivalSpeed="12.53" duration="35.00" routeLength="271.10" waitingTime="3.00" waitingCount="1" stopTime="0.00" timeLoss="13.96" rerouteNo="1" devices="tripinfo_14 routing_14" vType="DEFAULT_VEHTYPE" speedFactor="0.99" vaporized=""/>
    <tripinfo id="1" depart="0.00" departLane="cb_0" departPos="5.10" departSpeed="0.00" departDelay="0.00" arrival="41.00" arrivalLane="ad_0" arrivalPos="100.26" arrivalSpeed="12.21" duration="41.00" routeLength="361.90" waitingTime="4.00" waitingCount="1" stopTime="0.00" timeLoss="11.48" rerouteNo="1" devices="tripinfo_1 routing_1" vType="DEFAULT_VEHTYPE" speedFactor="0.94" vaporized=""/>
    <tripinfo id="24" depart="6.00" departLane="be_0" departPos="5.10" departSpeed="0.00" departDelay="4.00" arrival="43.00" arrivalLane="da_0" arrivalPos="100.26" arrivalSpeed="10.87" duration="37.00" routeLength="271.10" waitingTime="1.00" waitingCount="1" stopTime="0.00" timeLoss="11.38" rerouteNo="1" devices="tripinfo_24 routing_24" vType="DEFAULT_VEHTYPE" speedFactor="0.83" vaporized=""/>
    <tripinfo id="54" depart="9.00" departLane="be_0" departPos="5.10" departSpeed="0.00" departDelay="7.00" arrival="45.00" arrivalLane="da_0" arrivalPos="100.26" arrivalSpeed="13.79" duration="36.00" routeLength="271.10" waitingTime="1.00" waitingCount="1" stopTime="0.00" timeLoss="14.38" rerouteNo="1" devices="tripinfo_54 routing_54" vType="DEFAULT_VEHTYPE" speedFactor="0.99" vaporized=""/>
    <tripinfo id="0ev" depart="0.00" departLane="ab_0" departPos="7.10" departSpeed="0.00" departDelay="0.00" arrival="48.00" arrivalLane="da_0" arrivalPos="100.26" arrivalSpeed="17.36" duration="48.00" routeLength="401.51" waitingTime="0.00" waitingCount="0" stopTime="0.00" timeLoss="26.41" rerouteNo="1" devices="tripinfo_0ev" vType="ev" speedFactor="2.00" vaporized=""/>
</tripinfos>
