<?xml version="1.0" encoding="UTF-8"?>

<!-- generated on Wed 20 Nov 2019 17:25:44 CET by Eclipse SUMO GUI Version 1.3.1
<configuration xmlns:xsi="http://www.w3.org/2001/XMLSchema-instance" xsi:noNamespaceSchemaLocation="http://sumo.dlr.de/xsd/sumoConfiguration.xsd">

    <input>
        <net-file value="network.net.xml"/>
        <route-files value="network.rou.xml"/>
        <additional-files value="network.add.xml"/>
    </input>

    <output>
        <tripinfo-output value="tripinfo.xml"/>
    </output>

    <time>
        <begin value="0"/>
        <end value="2000"/>
    </time>

    <traci_server>
        <remote-port value="39003"/>
    </traci_server>

    <gui_only>
        <gui-settings-file value="network.settings.xml"/>
    </gui_only>

</configuration>
-->

<tripinfos xmlns:xsi="http://www.w3.org/2001/XMLSchema-instance" xsi:noNamespaceSchemaLocation="http://sumo.dlr.de/xsd/tripinfo_file.xsd">
    <tripinfo id="3" depart="3.00" departLane="eb_0" departPos="5.10" departSpeed="0.00" departDelay="0.00" arrival="12.00" arrivalLane="eb_0" arrivalPos="75.36" arrivalSpeed="13.87" duration="9.00" routeLength="70.26" waitingTime="0.00" waitingCount="0" stopTime="0.00" timeLoss="3.54" rerouteNo="1" devices="tripinfo_3 routing_3" vType="DEFAULT_VEHTYPE" speedFactor="1.08" vaporized=""/>
    <tripinfo id="10" depart="10.00" departLane="cd_0" departPos="5.10" departSpeed="0.00" departDelay="0.00" arrival="38.00" arrivalLane="eb_0" arrivalPos="75.36" arrivalSpeed="14.62" duration="28.00" routeLength="295.77" waitingTime="0.00" waitingCount="0" stopTime="0.00" timeLoss="6.52" rerouteNo="1" devices="tripinfo_10 routing_10" vType="DEFAULT_VEHTYPE" speedFactor="1.09" vaporized=""/>
    <tripinfo id="17" depart="17.00" departLane="cd_0" departPos="5.10" departSpeed="0.00" departDelay="0.00" arrival="41.00" arrivalLane="da_0" arrivalPos="100.26" arrivalSpeed="11.99" duration="24.00" routeLength="237.41" waitingTime="0.00" waitingCount="0" stopTime="0.00" timeLoss="5.10" rerouteNo="0" devices="tripinfo_17 routing_17" vType="DEFAULT_VEHTYPE" speedFactor="0.94" vaporized=""/>
    <tripinfo id="4" depart="4.00" departLane="be_0" departPos="5.10" departSpeed="0.00" departDelay="0.00" arrival="62.00" arrivalLane="da_0" arrivalPos="100.26" arrivalSpeed="14.31" duration="58.00" routeLength="271.10" waitingTime="27.00" waitingCount="1" stopTime="0.00" timeLoss="37.20" rerouteNo="1" devices="tripinfo_4 routing_4" vType="DEFAULT_VEHTYPE" speedFactor="1.03" vaporized=""/>
    <tripinfo id="16" depart="16.00" departLane="dc_0" departPos="5.10" departSpeed="0.00" departDelay="0.00" arrival="72.00" arrivalLane="ea_0" arrivalPos="74.83" arrivalSpeed="8.75" duration="56.00" routeLength="311.82" waitingTime="2.00" waitingCount="2" stopTime="0.00" timeLoss="28.29" rerouteNo="1" devices="tripinfo_16 routing_16" vType="DEFAULT_VEHTYPE" speedFactor="0.88" vaporized=""/>
    <tripinfo id="9" depart="9.00" departLane="bc_0" departPos="5.10" departSpeed="0.00" departDelay="0.00" arrival="93.00" arrivalLane="ad_0" arrivalPos="100.26" arrivalSpeed="4.96" duration="84.00" routeLength="396.95" waitingTime="23.00" waitingCount="3" stopTime="0.00" timeLoss="48.03" rerouteNo="1" devices="tripinfo_9 routing_9" vType="DEFAULT_VEHTYPE" speedFactor="0.86" vaporized=""/>
    <tripinfo id="11" depart="11.00" departLane="de_0" departPos="5.10" departSpeed="0.00" departDelay="0.00" arrival="101.00" arrivalLane="da_0" arrivalPos="100.26" arrivalSpeed="13.68" duration="90.00" routeLength="412.02" waitingTime="44.00" waitingCount="1" stopTime="0.00" timeLoss="58.22" rerouteNo="1" devices="tripinfo_11 routing_11" vType="DEFAULT_VEHTYPE" speedFactor="1.03" vaporized=""/>
    <tripinfo id="8" depart="8.00" departLane="ea_0" departPos="5.10" departSpeed="0.00" departDelay="0.00" arrival="105.00" arrivalLane="dc_0" arrivalPos="125.75" arrivalSpeed="12.31" duration="97.00" routeLength="336.98" waitingTime="55.00" waitingCount="2" stopTime="0.00" timeLoss="68.44" rerouteNo="1" devices="tripinfo_8 routing_8" vType="DEFAULT_VEHTYPE" speedFactor="0.94" vaporized=""/>
    <tripinfo id="15" depart="15.00" departLane="bc_0" departPos="5.10" departSpeed="0.00" departDelay="0.00" arrival="105.00" arrivalLane="da_0" arrivalPos="100.26" arrivalSpeed="12.40" duration="90.00" routeLength="355.27" waitingTime="46.00" waitingCount="2" stopTime="0.00" timeLoss="60.32" rerouteNo="1" devices="tripinfo_15 routing_15" vType="DEFAULT_VEHTYPE" speedFactor="0.93" vaporized=""/>
</tripinfos>
