<?xml version="1.0" encoding="UTF-8"?>

<!-- generated on Mon 18 Nov 2019 13:58:31 CET by Eclipse SUMO GUI Version 1.3.1
<configuration xmlns:xsi="http://www.w3.org/2001/XMLSchema-instance" xsi:noNamespaceSchemaLocation="http://sumo.dlr.de/xsd/sumoConfiguration.xsd">

    <input>
        <net-file value="network.net.xml"/>
        <route-files value="network.rou.xml"/>
        <additional-files value="network.add.xml"/>
    </input>

    <output>
        <tripinfo-output value="tripinfo.xml"/>
    </output>

    <time>
        <begin value="0"/>
        <end value="2000"/>
    </time>

    <traci_server>
        <remote-port value="60357"/>
    </traci_server>

    <gui_only>
        <gui-settings-file value="network.settings.xml"/>
    </gui_only>

</configuration>
-->

<tripinfos xmlns:xsi="http://www.w3.org/2001/XMLSchema-instance" xsi:noNamespaceSchemaLocation="http://sumo.dlr.de/xsd/tripinfo_file.xsd">
    <tripinfo id="3" depart="3.00" departLane="eb_0" departPos="5.10" departSpeed="0.00" departDelay="0.00" arrival="12.00" arrivalLane="eb_0" arrivalPos="75.36" arrivalSpeed="13.87" duration="9.00" routeLength="70.26" waitingTime="0.00" waitingCount="0" stopTime="0.00" timeLoss="3.54" rerouteNo="1" devices="tripinfo_3 routing_3" vType="DEFAULT_VEHTYPE" speedFactor="1.08" vaporized=""/>
    <tripinfo id="17" depart="17.00" departLane="cd_0" departPos="5.10" departSpeed="0.00" departDelay="0.00" arrival="41.00" arrivalLane="da_0" arrivalPos="100.26" arrivalSpeed="11.99" duration="24.00" routeLength="237.41" waitingTime="0.00" waitingCount="0" stopTime="0.00" timeLoss="5.10" rerouteNo="0" devices="tripinfo_17 routing_17" vType="DEFAULT_VEHTYPE" speedFactor="0.94" vaporized=""/>
    <tripinfo id="4" depart="4.00" departLane="be_0" departPos="5.10" departSpeed="0.00" departDelay="0.00" arrival="53.00" arrivalLane="da_0" arrivalPos="100.26" arrivalSpeed="14.31" duration="49.00" routeLength="271.10" waitingTime="18.00" waitingCount="1" stopTime="0.00" timeLoss="28.25" rerouteNo="1" devices="tripinfo_4 routing_4" vType="DEFAULT_VEHTYPE" speedFactor="1.03" vaporized=""/>
    <tripinfo id="2" depart="4.00" departLane="ab_0" departPos="5.10" departSpeed="0.00" departDelay="2.00" arrival="72.00" arrivalLane="ae_0" arrivalPos="74.83" arrivalSpeed="7.95" duration="68.00" routeLength="489.18" waitingTime="8.00" waitingCount="1" stopTime="0.00" timeLoss="29.80" rerouteNo="1" devices="tripinfo_2 routing_2" vType="DEFAULT_VEHTYPE" speedFactor="1.01" vaporized=""/>
    <tripinfo id="0ev" depart="0.00" departLane="ab_0" departPos="7.10" departSpeed="0.00" departDelay="0.00" arrival="91.00" arrivalLane="ba_0" arrivalPos="122.29" arrivalSpeed="19.03" duration="91.00" routeLength="843.80" waitingTime="0.00" waitingCount="0" stopTime="0.00" timeLoss="45.88" rerouteNo="0" devices="tripinfo_0ev" vType="ev" speedFactor="2.00" vaporized=""/>
</tripinfos>
